 Enter ifcurve (0=recti, 1=orth curvi, 2=apprx curvi, -1 = skip
 And atom ordering flag, 0= never changes, 1= use the first order thenceforth,
  2= deduce it (does read on fail), 3= always read it
 Reading file: 
 ./dimethyltetrazole-td-singlets-root-1.log                                     
                                          
  Entering Gaussian System, Link 0=g16                                          
  
 Gaussian format, type: g94, g98, g03= F F F
  #P tda(singlets,nstates=10,Root=1) scf(maxcycle=500,xqc) wb97xd/6-31G(    
 energy type= WB97XD  
 Original G94 input coords:
  7  0.509925  1.127439  0.147000
  6  1.067342 -0.072664 -0.008849
  6  2.509305 -0.392746  0.125608
  7  0.075149 -0.907000 -0.268438
  7 -1.088288 -0.060229 -0.405474
  7 -0.772207  1.279656 -0.036173
  6 -2.251288 -0.591055  0.287186
  1  3.008430 -0.303640 -0.844264
  1  2.621832 -1.418869  0.481856
  1  2.986572  0.291492  0.830024
  1 -2.417373 -1.598213 -0.107974
  1 -3.109885  0.043876  0.062153
  1 -2.094634 -0.647076  1.371612
 nber atoms=          13
 Original standard coords:
  7  0.509735  1.127621  0.121715
  6  1.066962 -0.075127 -0.012990
  6  2.508901 -0.392986  0.126879
  7  0.074611 -0.913779 -0.257640
  7 -1.088729 -0.069398 -0.409438
  7 -0.772405  1.276759 -0.063920
  6 -2.251694 -0.587738  0.292674
  1  3.007885 -0.321104 -0.844493
  1  2.621342 -1.412670  0.501186
  1  2.986374  0.303524  0.819020
  1 -2.417980 -1.601697 -0.084601
  1 -3.110238  0.043240  0.056590
  1 -2.094877 -0.624608  1.377897
  SCF Done:  E(RwB97XD) =  -336.749548254     A.U. after    1 cycles            
  
          24          41 "  -336.749548254"
After scan for Atom:   Atom  AN      X      Y      Z        X      Y      Z        X      Y      Z   
After scan for Atom:   Atom  AN      X      Y      Z        X      Y      Z        X      Y      Z   
After scan for Atom:   Atom  AN      X      Y      Z        X      Y      Z        X      Y      Z   
After scan for Atom:   Atom  AN      X      Y      Z        X      Y      Z        X      Y      Z   
After scan for Atom:   Atom  AN      X      Y      Z        X      Y      Z        X      Y      Z   
After scan for Atom:   Atom  AN      X      Y      Z        X      Y      Z        X      Y      Z   
After scan for Atom:   Atom  AN      X      Y      Z        X      Y      Z        X      Y      Z   
After scan for Atom:   Atom  AN      X      Y      Z        X      Y      Z        X      Y      Z   
After scan for Atom:   Atom  AN      X      Y      Z        X      Y      Z        X      Y      Z   
After scan for Atom:   Atom  AN      X      Y      Z        X      Y      Z        X      Y      Z   
After scan for Atom:   Atom  AN      X      Y      Z        X      Y      Z        X      Y      Z   
 g94    frequencies=
     0.0    0.0    0.0    0.0    0.0    0.0   53.2  113.4  241.6  251.2
   298.4  414.5  423.5  502.7  638.2  709.5  769.1  906.3  968.6 1030.3
  1077.7 1107.5 1165.1 1214.3 1252.9 1344.4 1437.4 1455.4 1474.7 1488.3
  1496.5 1510.9 1582.8 3059.3 3093.8 3148.0 3175.9 3196.9 3199.9
 g94    symmetries=
                                                 A      A      A      A
       A      A      A      A      A      A      A      A      A      A
       A      A      A      A      A      A      A      A      A      A
       A      A      A      A      A      A      A      A      A
 atomic masses:
 14.0031 12.0000 12.0000 14.0031 14.0031 14.0031 12.0000  1.0078  1.0078  1.0078
  1.0078  1.0078  1.0078
 Looking for force constants in 
 ./dimethyltetrazole-td-singlets-root-1.fchk                                    
  
 Cartesian Force Constants                  R   N=         780                  
  
 n3=          39         780
 g94-fc frequencies=
    -9.2   -0.0   -0.0    0.0   16.1   20.1   53.2  113.4  241.6  251.2
   298.4  414.5  423.5  502.7  638.2  709.6  769.1  906.3  968.6 1030.3
  1077.8 1107.5 1165.1 1214.3 1252.9 1344.5 1437.4 1455.4 1474.7 1488.3
  1496.6 1510.9 1582.9 3059.3 3093.9 3148.0 3176.0 3196.9 3200.0
 at 99999: n3=          39
 symm operator            1 :  F  nop=           0
 symm operator            2 :  F  nop=           0
 symm operator            3 :  F  nop=           0
 symm operator            4 :  F  nop=           0
 symm operator            5 :  F  nop=           0
 symm operator            6 :  F  nop=           0
 symm operator            7 :  F  nop=           0
 The point group of the molecule is  C1
 Symmetry rotation matrix:
   1.00000   0.00000   0.00000
   0.00000   1.00000   0.00000
   0.00000   0.00000   1.00000

 Projecting out zero-frequency components
 generating redundant internal coords
         300        3600          13
 search for int coords
   1 str   2   1   1.332
   2 str   3   2   1.483
   3 str   4   2   1.322
   4 str   5   4   1.445
   5 str   6   1   1.304
   6 str   6   5   1.425
   7 str   7   5   1.454
   8 str   8   3   1.094
   9 str   9   3   1.092
  10 str  10   3   1.092
  11 str  11   7   1.095
  12 str  12   7   1.091
  13 str  13   7   1.097
 nber stretches=          13
  14 ben   1   2   3
  15 prop tor   1   2   3   8
  16 prop tor   1   2   3   9
  17 prop tor   1   2   3  10
  18 ben   1   2   4
  19 prop tor   1   2   4   5
  20 ben   1   6   5
  21 ben   2   1   6
  22 prop tor   2   1   6   5
  23 ben   2   3   8
  24 ben   2   3   9
  25 ben   2   3  10
  26 ben   2   4   5
  27 prop tor   2   4   5   6
  28 prop tor   2   4   5   7
  29 ben   3   2   4
  30 prop tor   3   2   4   5
  31 prop tor   4   2   3   8
  32 prop tor   4   2   3   9
  33 prop tor   4   2   3  10
  34 ben   4   5   6
  35 prop tor   4   5   6   1
  36 ben   4   5   7
  37 prop tor   4   5   7  11
  38 prop tor   4   5   7  12
  39 prop tor   4   5   7  13
  40 ben   5   7  11
  41 ben   5   7  12
  42 ben   5   7  13
  43 prop tor   6   1   2   3
  44 prop tor   6   1   2   4
  45 ben   6   5   7
  46 prop tor   6   5   7  11
  47 prop tor   6   5   7  12
  48 prop tor   6   5   7  13
  49 prop tor   7   5   6   1
  50 ben   8   3   9
  51 ben   8   3  10
  52 ben   9   3  10
  53 ben  11   7  12
  54 ben  11   7  13
  55 ben  12   7  13
 nber bend=              21
 nber lin bend=           0
 nber prop tor=          21
 nber impr tor=           0
 nber tot redund int=          55
 Eigenvalues of G in red int coords
    Gval -0.00000000 -0.00000000 -0.00000000 -0.00000000 -0.00000000 -0.00000000 -0.00000000 -0.00000000
    Gval -0.00000000  0.00000000  0.00000000  0.00000000  0.00000000  0.00000000  0.00000000  0.00000000
    Gval  0.00000000  0.00000000  0.00000000  0.00000000  0.00000000  0.00000000  0.00002001  0.00002635
    Gval  0.00003859  0.00005728  0.00006652  0.00007036  0.00008814  0.00009502  0.00017561  0.00021300
    Gval  0.00025653  0.00031620  0.00035217  0.00048656  0.00051949  0.00054322  0.00054889  0.00055415
    Gval  0.00055534  0.00058218  0.00063814  0.00069472  0.00071732  0.00078603  0.00111323  0.00114645
    Gval  0.00115167  0.00118288  0.00134769  0.00241159  0.00241950  0.00245003  0.00246195
  2.001109338747075E-005  2.001109338747075E-005
  2.635354974252746E-005  2.001109338747075E-005
  3.858657372045405E-005  2.001109338747075E-005
  5.728433940656292E-005  2.001109338747075E-005
  6.652086085024636E-005  2.001109338747075E-005
  7.035860450337731E-005  2.001109338747075E-005
  8.813818920173000E-005  2.001109338747075E-005
  9.502203934488428E-005  2.001109338747075E-005
  1.756089841903495E-004  2.001109338747075E-005
  2.130036095829791E-004  2.001109338747075E-005
  2.565345540765923E-004  2.001109338747075E-005
  3.162007683910611E-004  2.001109338747075E-005
  3.521696049885150E-004  2.001109338747075E-005
  4.865606289512598E-004  2.001109338747075E-005
  5.194946368403384E-004  2.001109338747075E-005
  5.432221500358249E-004  2.001109338747075E-005
  5.488902244067202E-004  2.001109338747075E-005
  5.541525161794850E-004  2.001109338747075E-005
  5.553421314217226E-004  2.001109338747075E-005
  5.821838995591464E-004  2.001109338747075E-005
  6.381404119316756E-004  2.001109338747075E-005
  6.947220269255993E-004  2.001109338747075E-005
  7.173231048224301E-004  2.001109338747075E-005
  7.860286296058701E-004  2.001109338747075E-005
  1.113232057390526E-003  2.001109338747075E-005
  1.146454817842091E-003  2.001109338747075E-005
  1.151671360541619E-003  2.001109338747075E-005
  1.182880115648920E-003  2.001109338747075E-005
  1.347692987346710E-003  2.001109338747075E-005
  2.411587195279057E-003  2.001109338747075E-005
  2.419496750278164E-003  2.001109338747075E-005
  2.450034955385835E-003  2.001109338747075E-005
  2.461951064391441E-003  2.001109338747075E-005
 cut=1d-8, nber non-redundant internal coords=          33
 Check on Eigenvals of non-red overlap matrix:
  0.00002001  0.00002635  0.00003859  0.00005728  0.00006652  0.00007036  0.00008814  0.00009502
  0.00017561  0.00021300  0.00025653  0.00031620  0.00035217  0.00048656  0.00051949  0.00054322
  0.00054889  0.00055415  0.00055534  0.00058218  0.00063814  0.00069472  0.00071732  0.00078603
  0.00111323  0.00114645  0.00115167  0.00118288  0.00134769  0.00241159  0.00241950  0.00245003
  0.00246195
 Checking for correct frequencies
 recalc frequencies=
    -0.0    0.0    0.0    0.0    0.0    0.0   53.2  113.4  241.6  251.2
   298.4  414.5  423.5  502.7  638.2  709.6  769.1  906.3  968.6 1030.3
  1077.8 1107.5 1165.1 1214.3 1252.9 1344.5 1437.4 1455.4 1474.7 1488.3
  1496.6 1510.9 1582.9 3059.3 3093.9 3148.0 3176.0 3196.9 3200.0
 recalc symmetries=
                                                                       
                                                                       
                                                                       
                                                                
 recalc freqs check OK
 Zero-point lengths:
 10.0000 10.0000 10.0000 10.0000 10.0000 10.0000 34.0004 23.2824 15.9497 15.6404
 14.3523 12.1770 12.0469 11.0567  9.8132  9.3068  8.9395  8.2348  7.9658  7.7235
  7.5515  7.4494  7.2629  7.1142  7.0038  6.7611  6.5388  6.4984  6.4557  6.4260
  6.4084  6.3779  6.2312  4.4821  4.4570  4.4185  4.3990  4.3846  4.3825
 generating redundant internal coords
         300        3600          13
 Adding extra bonds for z output only
           7           6           6           7           7           7
           6           1           1           1           1           1
           1
 search for int coords
   1 str   2   1   1.332
   2 str   3   2   1.483
   3 str   4   2   1.322
   4 str   5   4   1.445
   5 str   6   1   1.304
   6 str   6   5   1.425
   7 str   7   5   1.454
   8 str   8   3   1.094
   9 str   9   3   1.092
  10 str  10   3   1.092
  11 str  11   7   1.095
  12 str  12   7   1.091
  13 str  13   7   1.097
 nber stretches=          13
  14 ben   1   2   3
  15 prop tor   1   2   3   8
  16 prop tor   1   2   3   9
  17 prop tor   1   2   3  10
  18 ben   1   2   4
  19 prop tor   1   2   4   5
  20 ben   1   6   5
  21 ben   2   1   6
  22 prop tor   2   1   6   5
  23 ben   2   3   8
  24 ben   2   3   9
  25 ben   2   3  10
  26 ben   2   4   5
  27 prop tor   2   4   5   6
  28 prop tor   2   4   5   7
  29 ben   3   2   4
  30 prop tor   3   2   4   5
  31 prop tor   4   2   3   8
  32 prop tor   4   2   3   9
  33 prop tor   4   2   3  10
  34 ben   4   5   6
  35 prop tor   4   5   6   1
  36 ben   4   5   7
  37 prop tor   4   5   7  11
  38 prop tor   4   5   7  12
  39 prop tor   4   5   7  13
  40 ben   5   7  11
  41 ben   5   7  12
  42 ben   5   7  13
  43 prop tor   6   1   2   3
  44 prop tor   6   1   2   4
  45 ben   6   5   7
  46 prop tor   6   5   7  11
  47 prop tor   6   5   7  12
  48 prop tor   6   5   7  13
  49 prop tor   7   5   6   1
  50 ben   8   3   9
  51 ben   8   3  10
  52 ben   9   3  10
  53 ben  11   7  12
  54 ben  11   7  13
  55 ben  12   7  13
 nber bend=              21
 nber lin bend=           0
 nber prop tor=          21
 nber impr tor=           0
 nber tot redund int=          55
 Reading file: 
 ./dimethyltetrazole-td-triplets-root-1.log                                     
                                          
  Entering Gaussian System, Link 0=g16                                          
  
 Gaussian format, type: g94, g98, g03= F F F
  #P tda(triplets,nstates=10,Root=1) scf(maxcycle=500,xqc) wb97xd/6-31G(    
 energy type= WB97XD  
 Original G94 input coords:
  7  0.696269  1.230638  0.015026
  6  1.059441 -0.030198 -0.007598
  6  2.444622 -0.525437  0.059369
  7 -0.023376 -0.931691 -0.044018
  7 -1.051203 -0.133577 -0.329521
  7 -0.633809  1.280505  0.041777
  6 -2.369487 -0.499799  0.147921
  1  3.155680  0.300103  0.011506
  1  2.621907 -1.228471 -0.762845
  1  2.590040 -1.082073  0.993121
  1 -2.578579 -1.521553 -0.173267
  1 -3.097782  0.182793 -0.292145
  1 -2.413888 -0.439319  1.242634
 nber atoms=          13
 Original standard coords:
  7  0.696269  1.230638  0.015026
  6  1.059441 -0.030198 -0.007598
  6  2.444622 -0.525437  0.059369
  7 -0.023376 -0.931691 -0.044018
  7 -1.051203 -0.133577 -0.329521
  7 -0.633809  1.280505  0.041777
  6 -2.369487 -0.499799  0.147921
  1  3.155680  0.300103  0.011506
  1  2.621907 -1.228471 -0.762845
  1  2.590040 -1.082073  0.993121
  1 -2.578579 -1.521553 -0.173267
  1 -3.097782  0.182793 -0.292145
  1 -2.413888 -0.439319  1.242634
  SCF Done:  E(RwB97XD) =  -336.750975611     A.U. after    1 cycles            
  
          24          41 "  -336.750975611"
After scan for Atom:   Atom  AN      X      Y      Z        X      Y      Z        X      Y      Z   
After scan for Atom:   Atom  AN      X      Y      Z        X      Y      Z        X      Y      Z   
After scan for Atom:   Atom  AN      X      Y      Z        X      Y      Z        X      Y      Z   
After scan for Atom:   Atom  AN      X      Y      Z        X      Y      Z        X      Y      Z   
After scan for Atom:   Atom  AN      X      Y      Z        X      Y      Z        X      Y      Z   
After scan for Atom:   Atom  AN      X      Y      Z        X      Y      Z        X      Y      Z   
After scan for Atom:   Atom  AN      X      Y      Z        X      Y      Z        X      Y      Z   
After scan for Atom:   Atom  AN      X      Y      Z        X      Y      Z        X      Y      Z   
After scan for Atom:   Atom  AN      X      Y      Z        X      Y      Z        X      Y      Z   
After scan for Atom:   Atom  AN      X      Y      Z        X      Y      Z        X      Y      Z   
After scan for Atom:   Atom  AN      X      Y      Z        X      Y      Z        X      Y      Z   
 g94    frequencies=
     0.0    0.0    0.0    0.0    0.0    0.0  123.5  132.9  184.2  249.2
   276.6  310.2  418.7  564.3  593.6  664.9  746.3  941.1 1022.5 1034.6
  1075.1 1114.5 1149.7 1206.8 1319.7 1404.1 1432.2 1457.4 1464.3 1468.9
  1491.7 1506.9 1576.9 3068.5 3073.2 3141.1 3171.4 3205.1 3211.9
 g94    symmetries=
                                                 A      A      A      A
       A      A      A      A      A      A      A      A      A      A
       A      A      A      A      A      A      A      A      A      A
       A      A      A      A      A      A      A      A      A
 atomic masses:
 14.0031 12.0000 12.0000 14.0031 14.0031 14.0031 12.0000  1.0078  1.0078  1.0078
  1.0078  1.0078  1.0078
 Looking for force constants in 
 ./dimethyltetrazole-td-triplets-root-1.fchk                                    
  
 Cartesian Force Constants                  R   N=         780                  
  
 n3=          39         780
 g94-fc frequencies=
    -3.6   -0.0   -0.0    0.0   19.8   28.8  123.5  132.9  184.2  249.2
   276.6  310.2  418.7  564.3  593.6  664.9  746.4  941.1 1022.6 1034.6
  1075.1 1114.6 1149.7 1206.8 1319.7 1404.1 1432.2 1457.4 1464.3 1468.9
  1491.7 1506.9 1576.9 3068.6 3073.3 3141.2 3171.5 3205.2 3212.0
 at 99999: n3=          39
 symm operator            1 :  F  nop=           0
 symm operator            2 :  F  nop=           0
 symm operator            3 :  F  nop=           0
 symm operator            4 :  F  nop=           0
 symm operator            5 :  F  nop=           0
 symm operator            6 :  F  nop=           0
 symm operator            7 :  F  nop=           0
 The point group of the molecule is  C1
 Symmetry rotation matrix:
   1.00000   0.00000   0.00000
   0.00000   1.00000   0.00000
   0.00000   0.00000   1.00000

 Projecting out zero-frequency components
 generating redundant internal coords
         300        3600          13
 search for int coords
   1 str   2   1   1.312
   2 str   3   2   1.473
   3 str   4   2   1.409
   4 str   5   4   1.332
   5 str   6   1   1.331
   6 str   6   5   1.520
   7 str   7   5   1.449
   8 str   8   3   1.091
   9 str   9   3   1.096
  10 str  10   3   1.097
  11 str  11   7   1.091
  12 str  12   7   1.091
  13 str  13   7   1.097
 nber stretches=          13
  14 ben   1   2   3
  15 prop tor   1   2   3   8
  16 prop tor   1   2   3   9
  17 prop tor   1   2   3  10
  18 ben   1   2   4
  19 prop tor   1   2   4   5
  20 ben   1   6   5
  21 ben   2   1   6
  22 prop tor   2   1   6   5
  23 ben   2   3   8
  24 ben   2   3   9
  25 ben   2   3  10
  26 ben   2   4   5
  27 prop tor   2   4   5   6
  28 prop tor   2   4   5   7
  29 ben   3   2   4
  30 prop tor   3   2   4   5
  31 prop tor   4   2   3   8
  32 prop tor   4   2   3   9
  33 prop tor   4   2   3  10
  34 ben   4   5   6
  35 prop tor   4   5   6   1
  36 ben   4   5   7
  37 prop tor   4   5   7  11
  38 prop tor   4   5   7  12
  39 prop tor   4   5   7  13
  40 ben   5   7  11
  41 ben   5   7  12
  42 ben   5   7  13
  43 prop tor   6   1   2   3
  44 prop tor   6   1   2   4
  45 ben   6   5   7
  46 prop tor   6   5   7  11
  47 prop tor   6   5   7  12
  48 prop tor   6   5   7  13
  49 prop tor   7   5   6   1
  50 ben   8   3   9
  51 ben   8   3  10
  52 ben   9   3  10
  53 ben  11   7  12
  54 ben  11   7  13
  55 ben  12   7  13
 nber bend=              21
 nber lin bend=           0
 nber prop tor=          21
 nber impr tor=           0
 nber tot redund int=          55
 Eigenvalues of G in red int coords
    Gval -0.00000000 -0.00000000 -0.00000000 -0.00000000 -0.00000000 -0.00000000 -0.00000000 -0.00000000
    Gval -0.00000000 -0.00000000  0.00000000  0.00000000  0.00000000  0.00000000  0.00000000  0.00000000
    Gval  0.00000000  0.00000000  0.00000000  0.00000000  0.00000000  0.00000000  0.00001956  0.00002656
    Gval  0.00003857  0.00005978  0.00006586  0.00007379  0.00008888  0.00009455  0.00018316  0.00020253
    Gval  0.00024197  0.00030954  0.00031554  0.00047805  0.00051273  0.00054260  0.00054758  0.00055418
    Gval  0.00055534  0.00058518  0.00062699  0.00069297  0.00071658  0.00082079  0.00107756  0.00111607
    Gval  0.00114850  0.00121132  0.00125906  0.00240232  0.00243302  0.00243696  0.00245520
  1.956239125895064E-005  1.956239125895064E-005
  2.656084682066301E-005  1.956239125895064E-005
  3.857100392017592E-005  1.956239125895064E-005
  5.977984430971998E-005  1.956239125895064E-005
  6.585506862891997E-005  1.956239125895064E-005
  7.378582239052741E-005  1.956239125895064E-005
  8.888305729406788E-005  1.956239125895064E-005
  9.454673732702481E-005  1.956239125895064E-005
  1.831560193615394E-004  1.956239125895064E-005
  2.025258030227415E-004  1.956239125895064E-005
  2.419715708280458E-004  1.956239125895064E-005
  3.095357514021822E-004  1.956239125895064E-005
  3.155363224637639E-004  1.956239125895064E-005
  4.780468087089121E-004  1.956239125895064E-005
  5.127311883148184E-004  1.956239125895064E-005
  5.426000683094786E-004  1.956239125895064E-005
  5.475762637573838E-004  1.956239125895064E-005
  5.541751535578460E-004  1.956239125895064E-005
  5.553378557139993E-004  1.956239125895064E-005
  5.851790833769329E-004  1.956239125895064E-005
  6.269912261185403E-004  1.956239125895064E-005
  6.929655384342069E-004  1.956239125895064E-005
  7.165796614920404E-004  1.956239125895064E-005
  8.207894538044085E-004  1.956239125895064E-005
  1.077563479386536E-003  1.956239125895064E-005
  1.116070408937531E-003  1.956239125895064E-005
  1.148503250539542E-003  1.956239125895064E-005
  1.211324718373889E-003  1.956239125895064E-005
  1.259064532575322E-003  1.956239125895064E-005
  2.402320499963403E-003  1.956239125895064E-005
  2.433018327334366E-003  1.956239125895064E-005
  2.436959127741293E-003  1.956239125895064E-005
  2.455195800849652E-003  1.956239125895064E-005
 cut=1d-8, nber non-redundant internal coords=          33
 Check on Eigenvals of non-red overlap matrix:
  0.00001956  0.00002656  0.00003857  0.00005978  0.00006586  0.00007379  0.00008888  0.00009455
  0.00018316  0.00020253  0.00024197  0.00030954  0.00031554  0.00047805  0.00051273  0.00054260
  0.00054758  0.00055418  0.00055534  0.00058518  0.00062699  0.00069297  0.00071658  0.00082079
  0.00107756  0.00111607  0.00114850  0.00121132  0.00125906  0.00240232  0.00243302  0.00243696
  0.00245520
 Checking for correct frequencies
 recalc frequencies=
    -0.0   -0.0   -0.0   -0.0    0.0    0.0  123.5  132.9  184.2  249.2
   276.6  310.2  418.7  564.3  593.6  664.9  746.4  941.1 1022.6 1034.6
  1075.1 1114.6 1149.7 1206.8 1319.7 1404.1 1432.2 1457.4 1464.3 1468.9
  1491.7 1506.9 1576.9 3068.6 3073.3 3141.2 3171.5 3205.2 3212.0
 recalc symmetries=
                                                                       
                                                                       
                                                                       
                                                                
 recalc freqs check OK
 Zero-point lengths:
 10.0000 10.0000 10.0000 10.0000 10.0000 10.0000 22.3071 21.5078 18.2673 15.7044
 14.9065 14.0767 12.1160 10.4358 10.1753  9.6140  9.0744  8.0813  7.7526  7.7073
  7.5609  7.4258  7.3114  7.1364  6.8243  6.6159  6.5508  6.4939  6.4786  6.4685
  6.4188  6.3864  6.2430  4.4754  4.4719  4.4233  4.4021  4.3789  4.3743
 highest evec of mol 2
  0.0005  0.0002  0.0001
 -0.0007  0.0001  0.0003
 -0.0002 -0.0006 -0.0002
 -0.0010  0.0004  0.0004
 -0.0000 -0.0018 -0.0006
  0.0007  0.0011 -0.0002
  0.0947 -0.2972  0.0264
  0.0010  0.0011 -0.0001
 -0.0000  0.0006  0.0007
 -0.0001  0.0002 -0.0004
  0.1270  0.6124  0.1984
 -0.4568  0.4273 -0.2829
  0.0044 -0.0145 -0.0054
 Enter nber and list of atoms to keep of mol #2
 keep list:          13           1           2           3           4
           5           6           7           8           9          10
          11          12          13
 reordering atoms
           1 -0.707235196157877     
           2  -1.06508616567940     
           3  -2.44850771125739     
           4  2.160389492547908E-002
           5   1.04744939286340     
           6  0.622485809651626     
           7   2.36498750769231     
           8  -3.16273808139482     
           9  -2.61903976783594     
          10  -2.59599069879328     
          11   2.57979819038680     
          12   3.09250690999589     
          13   2.40401788895199     
           1           1
           2           2
           3           3
           4           4
           5           5
           6           6
           7           7
           8           8
           9           9
          10          10
          11          11
          12          12
          13          13
 initial cartes coords mol 1
   7   0.14038  -1.05566  -0.52415
   6   0.02084   0.14469  -1.08994
   6   0.15475   0.44888  -2.53539
   7  -0.20263   0.99498  -0.10251
   7  -0.35910   0.16235   1.06866
   7  -0.03779  -1.19168   0.76050
   6   0.36019   0.67838   2.22211
   1  -0.82146   0.38882  -3.02644
   1   0.54459   1.46145  -2.65880
   1   0.83187  -0.26248  -3.01249
   1   0.00061   1.69960   2.38313
   1   0.12055   0.05809   3.08743
   1   1.44463   0.69643   2.05682
 initial cartes coords mol 2
   7   0.02572  -1.14554  -0.70724
   6   0.01041   0.11692  -1.06509
   6   0.07448   0.61744  -2.44851
   7  -0.01453   1.01414   0.02160
   7  -0.30095   0.21380   1.04745
   7   0.05829  -1.20114   0.62249
   6   0.18522   0.57112   2.36499
   1   0.01742  -0.20477  -3.16274
   1  -0.74351   1.32704  -2.61904
   1   1.01150   1.16801  -2.59599
   1  -0.12769   1.59426   2.57980
   1  -0.25632  -0.11134   3.09251
   1   1.27966   0.50266   2.40402
 loop 1 0
 mod cartes coords mol 2
   7   0.02572  -1.14554  -0.70724
   6   0.01041   0.11692  -1.06509
   6   0.07448   0.61744  -2.44851
   7  -0.01453   1.01414   0.02160
   7  -0.30095   0.21380   1.04745
   7   0.05829  -1.20114   0.62249
   6   0.18522   0.57112   2.36499
   1   0.01742  -0.20477  -3.16274
   1  -0.74351   1.32704  -2.61904
   1   1.01150   1.16801  -2.59599
   1  -0.12769   1.59426   2.57980
   1  -0.25632  -0.11134   3.09251
   1   1.27966   0.50266   2.40402
 read in order, maxerr=  1.50 for atom  10
 loop 1 1
 mod cartes coords mol 2
   7  -0.02572  -1.14554  -0.70724
   6  -0.01041   0.11692  -1.06509
   6  -0.07448   0.61744  -2.44851
   7   0.01453   1.01414   0.02160
   7   0.30095   0.21380   1.04745
   7  -0.05829  -1.20114   0.62249
   6  -0.18522   0.57112   2.36499
   1  -0.01742  -0.20477  -3.16274
   1   0.74351   1.32704  -2.61904
   1  -1.01150   1.16801  -2.59599
   1   0.12769   1.59426   2.57980
   1   0.25632  -0.11134   3.09251
   1  -1.27966   0.50266   2.40402
 read in order, maxerr=  2.75 for atom  13
 loop 1 2
 mod cartes coords mol 2
   7   0.02572   1.14554  -0.70724
   6   0.01041  -0.11692  -1.06509
   6   0.07448  -0.61744  -2.44851
   7  -0.01453  -1.01414   0.02160
   7  -0.30095  -0.21380   1.04745
   7   0.05829   1.20114   0.62249
   6   0.18522  -0.57112   2.36499
   1   0.01742   0.20477  -3.16274
   1  -0.74351  -1.32704  -2.61904
   1   1.01150  -1.16801  -2.59599
   1  -0.12769  -1.59426   2.57980
   1  -0.25632   0.11134   3.09251
   1   1.27966  -0.50266   2.40402
 read in order, maxerr=  3.30 for atom  11
 loop 1 3
 mod cartes coords mol 2
   7  -0.02572   1.14554  -0.70724
   6  -0.01041  -0.11692  -1.06509
   6  -0.07448  -0.61744  -2.44851
   7   0.01453  -1.01414   0.02160
   7   0.30095  -0.21380   1.04745
   7  -0.05829   1.20114   0.62249
   6  -0.18522  -0.57112   2.36499
   1  -0.01742   0.20477  -3.16274
   1   0.74351  -1.32704  -2.61904
   1  -1.01150  -1.16801  -2.59599
   1   0.12769  -1.59426   2.57980
   1   0.25632   0.11134   3.09251
   1  -1.27966  -0.50266   2.40402
 read in order, maxerr=  3.30 for atom  11
 loop 1 4
 mod cartes coords mol 2
   7   0.02572  -1.14554   0.70724
   6   0.01041   0.11692   1.06509
   6   0.07448   0.61744   2.44851
   7  -0.01453   1.01414  -0.02160
   7  -0.30095   0.21380  -1.04745
   7   0.05829  -1.20114  -0.62249
   6   0.18522   0.57112  -2.36499
   1   0.01742  -0.20477   3.16274
   1  -0.74351   1.32704   2.61904
   1   1.01150   1.16801   2.59599
   1  -0.12769   1.59426  -2.57980
   1  -0.25632  -0.11134  -3.09251
   1   1.27966   0.50266  -2.40402
 read in order, maxerr=  6.27 for atom   8
 loop 1 5
 mod cartes coords mol 2
   7  -0.02572  -1.14554   0.70724
   6  -0.01041   0.11692   1.06509
   6  -0.07448   0.61744   2.44851
   7   0.01453   1.01414  -0.02160
   7   0.30095   0.21380  -1.04745
   7  -0.05829  -1.20114  -0.62249
   6  -0.18522   0.57112  -2.36499
   1  -0.01742  -0.20477   3.16274
   1   0.74351   1.32704   2.61904
   1  -1.01150   1.16801   2.59599
   1   0.12769   1.59426  -2.57980
   1   0.25632  -0.11134  -3.09251
   1  -1.27966   0.50266  -2.40402
 read in order, maxerr=  6.27 for atom   8
 loop 1 6
 mod cartes coords mol 2
   7   0.02572   1.14554   0.70724
   6   0.01041  -0.11692   1.06509
   6   0.07448  -0.61744   2.44851
   7  -0.01453  -1.01414  -0.02160
   7  -0.30095  -0.21380  -1.04745
   7   0.05829   1.20114  -0.62249
   6   0.18522  -0.57112  -2.36499
   1   0.01742   0.20477   3.16274
   1  -0.74351  -1.32704   2.61904
   1   1.01150  -1.16801   2.59599
   1  -0.12769  -1.59426  -2.57980
   1  -0.25632   0.11134  -3.09251
   1   1.27966  -0.50266  -2.40402
 read in order, maxerr=  6.25 for atom   8
 loop 1 7
 mod cartes coords mol 2
   7  -0.02572   1.14554   0.70724
   6  -0.01041  -0.11692   1.06509
   6  -0.07448  -0.61744   2.44851
   7   0.01453  -1.01414  -0.02160
   7   0.30095  -0.21380  -1.04745
   7  -0.05829   1.20114  -0.62249
   6  -0.18522  -0.57112  -2.36499
   1  -0.01742   0.20477   3.16274
   1   0.74351  -1.32704   2.61904
   1  -1.01150  -1.16801   2.59599
   1   0.12769  -1.59426  -2.57980
   1   0.25632   0.11134  -3.09251
   1  -1.27966  -0.50266  -2.40402
 read in order, maxerr=  6.24 for atom   8
 loop 2 0
 mod cartes coords mol 2
   7   0.02572  -0.70724  -1.14554
   6   0.01041  -1.06509   0.11692
   6   0.07448  -2.44851   0.61744
   7  -0.01453   0.02160   1.01414
   7  -0.30095   1.04745   0.21380
   7   0.05829   0.62249  -1.20114
   6   0.18522   2.36499   0.57112
   1   0.01742  -3.16274  -0.20477
   1  -0.74351  -2.61904   1.32704
   1   1.01150  -2.59599   1.16801
   1  -0.12769   2.57980   1.59426
   1  -0.25632   3.09251  -0.11134
   1   1.27966   2.40402   0.50266
 read in order, maxerr=  5.85 for atom   9
 loop 2 1
 mod cartes coords mol 2
   7  -0.02572  -0.70724  -1.14554
   6  -0.01041  -1.06509   0.11692
   6  -0.07448  -2.44851   0.61744
   7   0.01453   0.02160   1.01414
   7   0.30095   1.04745   0.21380
   7  -0.05829   0.62249  -1.20114
   6  -0.18522   2.36499   0.57112
   1  -0.01742  -3.16274  -0.20477
   1   0.74351  -2.61904   1.32704
   1  -1.01150  -2.59599   1.16801
   1   0.12769   2.57980   1.59426
   1   0.25632   3.09251  -0.11134
   1  -1.27966   2.40402   0.50266
 read in order, maxerr=  5.71 for atom   9
 loop 2 2
 mod cartes coords mol 2
   7   0.02572  -0.70724   1.14554
   6   0.01041  -1.06509  -0.11692
   6   0.07448  -2.44851  -0.61744
   7  -0.01453   0.02160  -1.01414
   7  -0.30095   1.04745  -0.21380
   7   0.05829   0.62249   1.20114
   6   0.18522   2.36499  -0.57112
   1   0.01742  -3.16274   0.20477
   1  -0.74351  -2.61904  -1.32704
   1   1.01150  -2.59599  -1.16801
   1  -0.12769   2.57980  -1.59426
   1  -0.25632   3.09251   0.11134
   1   1.27966   2.40402  -0.50266
 read in order, maxerr=  4.87 for atom   8
 loop 2 3
 mod cartes coords mol 2
   7  -0.02572  -0.70724   1.14554
   6  -0.01041  -1.06509  -0.11692
   6  -0.07448  -2.44851  -0.61744
   7   0.01453   0.02160  -1.01414
   7   0.30095   1.04745  -0.21380
   7  -0.05829   0.62249   1.20114
   6  -0.18522   2.36499  -0.57112
   1  -0.01742  -3.16274   0.20477
   1   0.74351  -2.61904  -1.32704
   1  -1.01150  -2.59599  -1.16801
   1   0.12769   2.57980  -1.59426
   1   0.25632   3.09251   0.11134
   1  -1.27966   2.40402  -0.50266
 read in order, maxerr=  4.87 for atom   8
 loop 2 4
 mod cartes coords mol 2
   7   0.02572   0.70724  -1.14554
   6   0.01041   1.06509   0.11692
   6   0.07448   2.44851   0.61744
   7  -0.01453  -0.02160   1.01414
   7  -0.30095  -1.04745   0.21380
   7   0.05829  -0.62249  -1.20114
   6   0.18522  -2.36499   0.57112
   1   0.01742   3.16274  -0.20477
   1  -0.74351   2.61904   1.32704
   1   1.01150   2.59599   1.16801
   1  -0.12769  -2.57980   1.59426
   1  -0.25632  -3.09251  -0.11134
   1   1.27966  -2.40402   0.50266
 read in order, maxerr=  5.07 for atom  10
 loop 2 5
 mod cartes coords mol 2
   7  -0.02572   0.70724  -1.14554
   6  -0.01041   1.06509   0.11692
   6  -0.07448   2.44851   0.61744
   7   0.01453  -0.02160   1.01414
   7   0.30095  -1.04745   0.21380
   7  -0.05829  -0.62249  -1.20114
   6  -0.18522  -2.36499   0.57112
   1  -0.01742   3.16274  -0.20477
   1   0.74351   2.61904   1.32704
   1  -1.01150   2.59599   1.16801
   1   0.12769  -2.57980   1.59426
   1   0.25632  -3.09251  -0.11134
   1  -1.27966  -2.40402   0.50266
 read in order, maxerr=  5.39 for atom  10
 loop 2 6
 mod cartes coords mol 2
   7   0.02572   0.70724   1.14554
   6   0.01041   1.06509  -0.11692
   6   0.07448   2.44851  -0.61744
   7  -0.01453  -0.02160  -1.01414
   7  -0.30095  -1.04745  -0.21380
   7   0.05829  -0.62249   1.20114
   6   0.18522  -2.36499  -0.57112
   1   0.01742   3.16274   0.20477
   1  -0.74351   2.61904  -1.32704
   1   1.01150   2.59599  -1.16801
   1  -0.12769  -2.57980  -1.59426
   1  -0.25632  -3.09251   0.11134
   1   1.27966  -2.40402  -0.50266
 read in order, maxerr=  5.84 for atom  11
 loop 2 7
 mod cartes coords mol 2
   7  -0.02572   0.70724   1.14554
   6  -0.01041   1.06509  -0.11692
   6  -0.07448   2.44851  -0.61744
   7   0.01453  -0.02160  -1.01414
   7   0.30095  -1.04745  -0.21380
   7  -0.05829  -0.62249   1.20114
   6  -0.18522  -2.36499  -0.57112
   1  -0.01742   3.16274   0.20477
   1   0.74351   2.61904  -1.32704
   1  -1.01150   2.59599  -1.16801
   1   0.12769  -2.57980  -1.59426
   1   0.25632  -3.09251   0.11134
   1  -1.27966  -2.40402  -0.50266
 read in order, maxerr=  5.84 for atom  11
 loop 3 0
 mod cartes coords mol 2
   7  -1.14554   0.02572  -0.70724
   6   0.11692   0.01041  -1.06509
   6   0.61744   0.07448  -2.44851
   7   1.01414  -0.01453   0.02160
   7   0.21380  -0.30095   1.04745
   7  -1.20114   0.05829   0.62249
   6   0.57112   0.18522   2.36499
   1  -0.20477   0.01742  -3.16274
   1   1.32704  -0.74351  -2.61904
   1   1.16801   1.01150  -2.59599
   1   1.59426  -0.12769   2.57980
   1  -0.11134  -0.25632   3.09251
   1   0.50266   1.27966   2.40402
 read in order, maxerr=  2.43 for atom  11
 loop 3 1
 mod cartes coords mol 2
   7  -1.14554  -0.02572  -0.70724
   6   0.11692  -0.01041  -1.06509
   6   0.61744  -0.07448  -2.44851
   7   1.01414   0.01453   0.02160
   7   0.21380   0.30095   1.04745
   7  -1.20114  -0.05829   0.62249
   6   0.57112  -0.18522   2.36499
   1  -0.20477  -0.01742  -3.16274
   1   1.32704   0.74351  -2.61904
   1   1.16801  -1.01150  -2.59599
   1   1.59426   0.12769   2.57980
   1  -0.11134   0.25632   3.09251
   1   0.50266  -1.27966   2.40402
 read in order, maxerr=  2.25 for atom  11
 loop 3 2
 mod cartes coords mol 2
   7   1.14554   0.02572  -0.70724
   6  -0.11692   0.01041  -1.06509
   6  -0.61744   0.07448  -2.44851
   7  -1.01414  -0.01453   0.02160
   7  -0.21380  -0.30095   1.04745
   7   1.20114   0.05829   0.62249
   6  -0.57112   0.18522   2.36499
   1   0.20477   0.01742  -3.16274
   1  -1.32704  -0.74351  -2.61904
   1  -1.16801   1.01150  -2.59599
   1  -1.59426  -0.12769   2.57980
   1   0.11134  -0.25632   3.09251
   1  -0.50266   1.27966   2.40402
 read in order, maxerr=  2.89 for atom   9
 loop 3 3
 mod cartes coords mol 2
   7   1.14554  -0.02572  -0.70724
   6  -0.11692  -0.01041  -1.06509
   6  -0.61744  -0.07448  -2.44851
   7  -1.01414   0.01453   0.02160
   7  -0.21380   0.30095   1.04745
   7   1.20114  -0.05829   0.62249
   6  -0.57112  -0.18522   2.36499
   1   0.20477  -0.01742  -3.16274
   1  -1.32704   0.74351  -2.61904
   1  -1.16801  -1.01150  -2.59599
   1  -1.59426   0.12769   2.57980
   1   0.11134   0.25632   3.09251
   1  -0.50266  -1.27966   2.40402
 read in order, maxerr=  2.80 for atom  13
 loop 3 4
 mod cartes coords mol 2
   7  -1.14554   0.02572   0.70724
   6   0.11692   0.01041   1.06509
   6   0.61744   0.07448   2.44851
   7   1.01414  -0.01453  -0.02160
   7   0.21380  -0.30095  -1.04745
   7  -1.20114   0.05829  -0.62249
   6   0.57112   0.18522  -2.36499
   1  -0.20477   0.01742   3.16274
   1   1.32704  -0.74351   2.61904
   1   1.16801   1.01150   2.59599
   1   1.59426  -0.12769  -2.57980
   1  -0.11134  -0.25632  -3.09251
   1   0.50266   1.27966  -2.40402
 read in order, maxerr=  6.23 for atom   8
 loop 3 5
 mod cartes coords mol 2
   7  -1.14554  -0.02572   0.70724
   6   0.11692  -0.01041   1.06509
   6   0.61744  -0.07448   2.44851
   7   1.01414   0.01453  -0.02160
   7   0.21380   0.30095  -1.04745
   7  -1.20114  -0.05829  -0.62249
   6   0.57112  -0.18522  -2.36499
   1  -0.20477  -0.01742   3.16274
   1   1.32704   0.74351   2.61904
   1   1.16801  -1.01150   2.59599
   1   1.59426   0.12769  -2.57980
   1  -0.11134   0.25632  -3.09251
   1   0.50266  -1.27966  -2.40402
 read in order, maxerr=  6.23 for atom   8
 loop 3 6
 mod cartes coords mol 2
   7   1.14554   0.02572   0.70724
   6  -0.11692   0.01041   1.06509
   6  -0.61744   0.07448   2.44851
   7  -1.01414  -0.01453  -0.02160
   7  -0.21380  -0.30095  -1.04745
   7   1.20114   0.05829  -0.62249
   6  -0.57112   0.18522  -2.36499
   1   0.20477   0.01742   3.16274
   1  -1.32704  -0.74351   2.61904
   1  -1.16801   1.01150   2.59599
   1  -1.59426  -0.12769  -2.57980
   1   0.11134  -0.25632  -3.09251
   1  -0.50266   1.27966  -2.40402
 read in order, maxerr=  6.28 for atom   8
 loop 3 7
 mod cartes coords mol 2
   7   1.14554  -0.02572   0.70724
   6  -0.11692  -0.01041   1.06509
   6  -0.61744  -0.07448   2.44851
   7  -1.01414   0.01453  -0.02160
   7  -0.21380   0.30095  -1.04745
   7   1.20114  -0.05829  -0.62249
   6  -0.57112  -0.18522  -2.36499
   1   0.20477  -0.01742   3.16274
   1  -1.32704   0.74351   2.61904
   1  -1.16801  -1.01150   2.59599
   1  -1.59426   0.12769  -2.57980
   1   0.11134   0.25632  -3.09251
   1  -0.50266  -1.27966  -2.40402
 read in order, maxerr=  6.29 for atom   8
 loop 4 0
 mod cartes coords mol 2
   7  -0.70724   0.02572  -1.14554
   6  -1.06509   0.01041   0.11692
   6  -2.44851   0.07448   0.61744
   7   0.02160  -0.01453   1.01414
   7   1.04745  -0.30095   0.21380
   7   0.62249   0.05829  -1.20114
   6   2.36499   0.18522   0.57112
   1  -3.16274   0.01742  -0.20477
   1  -2.61904  -0.74351   1.32704
   1  -2.59599   1.01150   1.16801
   1   2.57980  -0.12769   1.59426
   1   3.09251  -0.25632  -0.11134
   1   2.40402   1.27966   0.50266
 read in order, maxerr=  5.55 for atom  10
 loop 4 1
 mod cartes coords mol 2
   7  -0.70724  -0.02572  -1.14554
   6  -1.06509  -0.01041   0.11692
   6  -2.44851  -0.07448   0.61744
   7   0.02160   0.01453   1.01414
   7   1.04745   0.30095   0.21380
   7   0.62249  -0.05829  -1.20114
   6   2.36499  -0.18522   0.57112
   1  -3.16274  -0.01742  -0.20477
   1  -2.61904   0.74351   1.32704
   1  -2.59599  -1.01150   1.16801
   1   2.57980   0.12769   1.59426
   1   3.09251   0.25632  -0.11134
   1   2.40402  -1.27966   0.50266
 read in order, maxerr=  5.46 for atom  10
 loop 4 2
 mod cartes coords mol 2
   7  -0.70724   0.02572   1.14554
   6  -1.06509   0.01041  -0.11692
   6  -2.44851   0.07448  -0.61744
   7   0.02160  -0.01453  -1.01414
   7   1.04745  -0.30095  -0.21380
   7   0.62249   0.05829   1.20114
   6   2.36499   0.18522  -0.57112
   1  -3.16274   0.01742   0.20477
   1  -2.61904  -0.74351  -1.32704
   1  -2.59599   1.01150  -1.16801
   1   2.57980  -0.12769  -1.59426
   1   3.09251  -0.25632   0.11134
   1   2.40402   1.27966  -0.50266
 read in order, maxerr=  5.08 for atom  11
 loop 4 3
 mod cartes coords mol 2
   7  -0.70724  -0.02572   1.14554
   6  -1.06509  -0.01041  -0.11692
   6  -2.44851  -0.07448  -0.61744
   7   0.02160   0.01453  -1.01414
   7   1.04745   0.30095  -0.21380
   7   0.62249  -0.05829   1.20114
   6   2.36499  -0.18522  -0.57112
   1  -3.16274  -0.01742   0.20477
   1  -2.61904   0.74351  -1.32704
   1  -2.59599  -1.01150  -1.16801
   1   2.57980   0.12769  -1.59426
   1   3.09251   0.25632   0.11134
   1   2.40402  -1.27966  -0.50266
 read in order, maxerr=  4.99 for atom  11
 loop 4 4
 mod cartes coords mol 2
   7   0.70724   0.02572  -1.14554
   6   1.06509   0.01041   0.11692
   6   2.44851   0.07448   0.61744
   7  -0.02160  -0.01453   1.01414
   7  -1.04745  -0.30095   0.21380
   7  -0.62249   0.05829  -1.20114
   6  -2.36499   0.18522   0.57112
   1   3.16274   0.01742  -0.20477
   1   2.61904  -0.74351   1.32704
   1   2.59599   1.01150   1.16801
   1  -2.57980  -0.12769   1.59426
   1  -3.09251  -0.25632  -0.11134
   1  -2.40402   1.27966   0.50266
 read in order, maxerr=  5.01 for atom   9
 loop 4 5
 mod cartes coords mol 2
   7   0.70724  -0.02572  -1.14554
   6   1.06509  -0.01041   0.11692
   6   2.44851  -0.07448   0.61744
   7  -0.02160   0.01453   1.01414
   7  -1.04745   0.30095   0.21380
   7  -0.62249  -0.05829  -1.20114
   6  -2.36499  -0.18522   0.57112
   1   3.16274  -0.01742  -0.20477
   1   2.61904   0.74351   1.32704
   1   2.59599  -1.01150   1.16801
   1  -2.57980   0.12769   1.59426
   1  -3.09251   0.25632  -0.11134
   1  -2.40402  -1.27966   0.50266
 read in order, maxerr=  4.90 for atom   8
 loop 4 6
 mod cartes coords mol 2
   7   0.70724   0.02572   1.14554
   6   1.06509   0.01041  -0.11692
   6   2.44851   0.07448  -0.61744
   7  -0.02160  -0.01453  -1.01414
   7  -1.04745  -0.30095  -0.21380
   7  -0.62249   0.05829   1.20114
   6  -2.36499   0.18522  -0.57112
   1   3.16274   0.01742   0.20477
   1   2.61904  -0.74351  -1.32704
   1   2.59599   1.01150  -1.16801
   1  -2.57980  -0.12769  -1.59426
   1  -3.09251  -0.25632   0.11134
   1  -2.40402   1.27966  -0.50266
 read in order, maxerr=  5.14 for atom   8
 loop 4 7
 mod cartes coords mol 2
   7   0.70724  -0.02572   1.14554
   6   1.06509  -0.01041  -0.11692
   6   2.44851  -0.07448  -0.61744
   7  -0.02160   0.01453  -1.01414
   7  -1.04745   0.30095  -0.21380
   7  -0.62249  -0.05829   1.20114
   6  -2.36499  -0.18522  -0.57112
   1   3.16274  -0.01742   0.20477
   1   2.61904   0.74351  -1.32704
   1   2.59599  -1.01150  -1.16801
   1  -2.57980   0.12769  -1.59426
   1  -3.09251   0.25632   0.11134
   1  -2.40402  -1.27966  -0.50266
 read in order, maxerr=  5.15 for atom   8
 loop 5 0
 mod cartes coords mol 2
   7  -1.14554  -0.70724   0.02572
   6   0.11692  -1.06509   0.01041
   6   0.61744  -2.44851   0.07448
   7   1.01414   0.02160  -0.01453
   7   0.21380   1.04745  -0.30095
   7  -1.20114   0.62249   0.05829
   6   0.57112   2.36499   0.18522
   1  -0.20477  -3.16274   0.01742
   1   1.32704  -2.61904  -0.74351
   1   1.16801  -2.59599   1.01150
   1   1.59426   2.57980  -0.12769
   1  -0.11134   3.09251  -0.25632
   1   0.50266   2.40402   1.27966
 read in order, maxerr=  4.72 for atom   8
 loop 5 1
 mod cartes coords mol 2
   7  -1.14554  -0.70724  -0.02572
   6   0.11692  -1.06509  -0.01041
   6   0.61744  -2.44851  -0.07448
   7   1.01414   0.02160   0.01453
   7   0.21380   1.04745   0.30095
   7  -1.20114   0.62249  -0.05829
   6   0.57112   2.36499  -0.18522
   1  -0.20477  -3.16274  -0.01742
   1   1.32704  -2.61904   0.74351
   1   1.16801  -2.59599  -1.01150
   1   1.59426   2.57980   0.12769
   1  -0.11134   3.09251   0.25632
   1   0.50266   2.40402  -1.27966
 read in order, maxerr=  5.37 for atom   9
 loop 5 2
 mod cartes coords mol 2
   7   1.14554  -0.70724   0.02572
   6  -0.11692  -1.06509   0.01041
   6  -0.61744  -2.44851   0.07448
   7  -1.01414   0.02160  -0.01453
   7  -0.21380   1.04745  -0.30095
   7   1.20114   0.62249   0.05829
   6  -0.57112   2.36499   0.18522
   1   0.20477  -3.16274   0.01742
   1  -1.32704  -2.61904  -0.74351
   1  -1.16801  -2.59599   1.01150
   1  -1.59426   2.57980  -0.12769
   1   0.11134   3.09251  -0.25632
   1  -0.50266   2.40402   1.27966
 read in order, maxerr=  5.06 for atom  10
 loop 5 3
 mod cartes coords mol 2
   7   1.14554  -0.70724  -0.02572
   6  -0.11692  -1.06509  -0.01041
   6  -0.61744  -2.44851  -0.07448
   7  -1.01414   0.02160   0.01453
   7  -0.21380   1.04745   0.30095
   7   1.20114   0.62249  -0.05829
   6  -0.57112   2.36499  -0.18522
   1   0.20477  -3.16274  -0.01742
   1  -1.32704  -2.61904   0.74351
   1  -1.16801  -2.59599  -1.01150
   1  -1.59426   2.57980   0.12769
   1   0.11134   3.09251   0.25632
   1  -0.50266   2.40402  -1.27966
 read in order, maxerr=  5.63 for atom   9
 loop 5 4
 mod cartes coords mol 2
   7  -1.14554   0.70724   0.02572
   6   0.11692   1.06509   0.01041
   6   0.61744   2.44851   0.07448
   7   1.01414  -0.02160  -0.01453
   7   0.21380  -1.04745  -0.30095
   7  -1.20114  -0.62249   0.05829
   6   0.57112  -2.36499   0.18522
   1  -0.20477   3.16274   0.01742
   1   1.32704   2.61904  -0.74351
   1   1.16801   2.59599   1.01150
   1   1.59426  -2.57980  -0.12769
   1  -0.11134  -3.09251  -0.25632
   1   0.50266  -2.40402   1.27966
 read in order, maxerr=  5.21 for atom  11
 loop 5 5
 mod cartes coords mol 2
   7  -1.14554   0.70724  -0.02572
   6   0.11692   1.06509  -0.01041
   6   0.61744   2.44851  -0.07448
   7   1.01414  -0.02160   0.01453
   7   0.21380  -1.04745   0.30095
   7  -1.20114  -0.62249  -0.05829
   6   0.57112  -2.36499  -0.18522
   1  -0.20477   3.16274  -0.01742
   1   1.32704   2.61904   0.74351
   1   1.16801   2.59599  -1.01150
   1   1.59426  -2.57980   0.12769
   1  -0.11134  -3.09251   0.25632
   1   0.50266  -2.40402  -1.27966
 read in order, maxerr=  5.09 for atom  11
 loop 5 6
 mod cartes coords mol 2
   7   1.14554   0.70724   0.02572
   6  -0.11692   1.06509   0.01041
   6  -0.61744   2.44851   0.07448
   7  -1.01414  -0.02160  -0.01453
   7  -0.21380  -1.04745  -0.30095
   7   1.20114  -0.62249   0.05829
   6  -0.57112  -2.36499   0.18522
   1   0.20477   3.16274   0.01742
   1  -1.32704   2.61904  -0.74351
   1  -1.16801   2.59599   1.01150
   1  -1.59426  -2.57980  -0.12769
   1   0.11134  -3.09251  -0.25632
   1  -0.50266  -2.40402   1.27966
 read in order, maxerr=  5.33 for atom  10
 loop 5 7
 mod cartes coords mol 2
   7   1.14554   0.70724  -0.02572
   6  -0.11692   1.06509  -0.01041
   6  -0.61744   2.44851  -0.07448
   7  -1.01414  -0.02160   0.01453
   7  -0.21380  -1.04745   0.30095
   7   1.20114  -0.62249  -0.05829
   6  -0.57112  -2.36499  -0.18522
   1   0.20477   3.16274  -0.01742
   1  -1.32704   2.61904   0.74351
   1  -1.16801   2.59599  -1.01150
   1  -1.59426  -2.57980   0.12769
   1   0.11134  -3.09251   0.25632
   1  -0.50266  -2.40402  -1.27966
 read in order, maxerr=  5.09 for atom  11
 loop 6 0
 mod cartes coords mol 2
   7  -0.70724  -1.14554   0.02572
   6  -1.06509   0.11692   0.01041
   6  -2.44851   0.61744   0.07448
   7   0.02160   1.01414  -0.01453
   7   1.04745   0.21380  -0.30095
   7   0.62249  -1.20114   0.05829
   6   2.36499   0.57112   0.18522
   1  -3.16274  -0.20477   0.01742
   1  -2.61904   1.32704  -0.74351
   1  -2.59599   1.16801   1.01150
   1   2.57980   1.59426  -0.12769
   1   3.09251  -0.11134  -0.25632
   1   2.40402   0.50266   1.27966
 read in order, maxerr=  5.48 for atom  10
 loop 6 1
 mod cartes coords mol 2
   7  -0.70724  -1.14554  -0.02572
   6  -1.06509   0.11692  -0.01041
   6  -2.44851   0.61744  -0.07448
   7   0.02160   1.01414   0.01453
   7   1.04745   0.21380   0.30095
   7   0.62249  -1.20114  -0.05829
   6   2.36499   0.57112  -0.18522
   1  -3.16274  -0.20477  -0.01742
   1  -2.61904   1.32704   0.74351
   1  -2.59599   1.16801  -1.01150
   1   2.57980   1.59426   0.12769
   1   3.09251  -0.11134   0.25632
   1   2.40402   0.50266  -1.27966
 read in order, maxerr=  4.65 for atom   9
 loop 6 2
 mod cartes coords mol 2
   7  -0.70724   1.14554   0.02572
   6  -1.06509  -0.11692   0.01041
   6  -2.44851  -0.61744   0.07448
   7   0.02160  -1.01414  -0.01453
   7   1.04745  -0.21380  -0.30095
   7   0.62249   1.20114   0.05829
   6   2.36499  -0.57112   0.18522
   1  -3.16274   0.20477   0.01742
   1  -2.61904  -1.32704  -0.74351
   1  -2.59599  -1.16801   1.01150
   1   2.57980  -1.59426  -0.12769
   1   3.09251   0.11134  -0.25632
   1   2.40402  -0.50266   1.27966
 read in order, maxerr=  5.36 for atom  10
 loop 6 3
 mod cartes coords mol 2
   7  -0.70724   1.14554  -0.02572
   6  -1.06509  -0.11692  -0.01041
   6  -2.44851  -0.61744  -0.07448
   7   0.02160  -1.01414   0.01453
   7   1.04745  -0.21380   0.30095
   7   0.62249   1.20114  -0.05829
   6   2.36499  -0.57112  -0.18522
   1  -3.16274   0.20477  -0.01742
   1  -2.61904  -1.32704   0.74351
   1  -2.59599  -1.16801  -1.01150
   1   2.57980  -1.59426   0.12769
   1   3.09251   0.11134   0.25632
   1   2.40402  -0.50266  -1.27966
 read in order, maxerr=  5.42 for atom   9
 loop 6 4
 mod cartes coords mol 2
   7   0.70724  -1.14554   0.02572
   6   1.06509   0.11692   0.01041
   6   2.44851   0.61744   0.07448
   7  -0.02160   1.01414  -0.01453
   7  -1.04745   0.21380  -0.30095
   7  -0.62249  -1.20114   0.05829
   6  -2.36499   0.57112   0.18522
   1   3.16274  -0.20477   0.01742
   1   2.61904   1.32704  -0.74351
   1   2.59599   1.16801   1.01150
   1  -2.57980   1.59426  -0.12769
   1  -3.09251  -0.11134  -0.25632
   1  -2.40402   0.50266   1.27966
 read in order, maxerr=  5.05 for atom   8
 loop 6 5
 mod cartes coords mol 2
   7   0.70724  -1.14554  -0.02572
   6   1.06509   0.11692  -0.01041
   6   2.44851   0.61744  -0.07448
   7  -0.02160   1.01414   0.01453
   7  -1.04745   0.21380   0.30095
   7  -0.62249  -1.20114  -0.05829
   6  -2.36499   0.57112  -0.18522
   1   3.16274  -0.20477  -0.01742
   1   2.61904   1.32704   0.74351
   1   2.59599   1.16801  -1.01150
   1  -2.57980   1.59426   0.12769
   1  -3.09251  -0.11134   0.25632
   1  -2.40402   0.50266  -1.27966
 read in order, maxerr=  5.10 for atom  13
 loop 6 6
 mod cartes coords mol 2
   7   0.70724   1.14554   0.02572
   6   1.06509  -0.11692   0.01041
   6   2.44851  -0.61744   0.07448
   7  -0.02160  -1.01414  -0.01453
   7  -1.04745  -0.21380  -0.30095
   7  -0.62249   1.20114   0.05829
   6  -2.36499  -0.57112   0.18522
   1   3.16274   0.20477   0.01742
   1   2.61904  -1.32704  -0.74351
   1   2.59599  -1.16801   1.01150
   1  -2.57980  -1.59426  -0.12769
   1  -3.09251   0.11134  -0.25632
   1  -2.40402  -0.50266   1.27966
 read in order, maxerr=  5.02 for atom   8
 loop 6 7
 mod cartes coords mol 2
   7   0.70724   1.14554  -0.02572
   6   1.06509  -0.11692  -0.01041
   6   2.44851  -0.61744  -0.07448
   7  -0.02160  -1.01414   0.01453
   7  -1.04745  -0.21380   0.30095
   7  -0.62249   1.20114  -0.05829
   6  -2.36499  -0.57112  -0.18522
   1   3.16274   0.20477  -0.01742
   1   2.61904  -1.32704   0.74351
   1   2.59599  -1.16801  -1.01150
   1  -2.57980  -1.59426   0.12769
   1  -3.09251   0.11134   0.25632
   1  -2.40402  -0.50266  -1.27966
 read in order, maxerr=  5.23 for atom  13
 settling for map=           0  swap=           1  maxerr=
   1.50068043970573     
 loop 1 0
 mod cartes coords mol 2
   7   0.02572  -1.14554  -0.70724
   6   0.01041   0.11692  -1.06509
   6   0.07448   0.61744  -2.44851
   7  -0.01453   1.01414   0.02160
   7  -0.30095   0.21380   1.04745
   7   0.05829  -1.20114   0.62249
   6   0.18522   0.57112   2.36499
   1   0.01742  -0.20477  -3.16274
   1  -0.74351   1.32704  -2.61904
   1   1.01150   1.16801  -2.59599
   1  -0.12769   1.59426   2.57980
   1  -0.25632  -0.11134   3.09251
   1   1.27966   0.50266   2.40402
 read in order, maxerr=  1.50 for atom  10
 final axis swaps:           1           1           1
 final xyz swap pattern=           1
 reorder list:
   1   2   3   4   5   6   7   8   9  10  11  12  13
 axis signs=           1           1           1
  7     0.025718 -1.145543 -0.707235     0.140384 -1.055660 -0.524151
  6     0.010414  0.116924 -1.065086     0.020836  0.144689 -1.089942
  6     0.074479  0.617436 -2.448508     0.154748  0.448882 -2.535390
  7    -0.014533  1.014137  0.021604    -0.202626  0.994978 -0.102509
  7    -0.300950  0.213804  1.047449    -0.359100  0.162349  1.068655
  7     0.058293 -1.201137  0.622486    -0.037790 -1.191676  0.760504
  6     0.185217  0.571123  2.364988     0.360189  0.678385  2.222109
  1     0.017416 -0.204774 -3.162738    -0.821458  0.388820 -3.026441
  1    -0.743507  1.327042 -2.619040     0.544588  1.461452 -2.658800
  1     1.011497  1.168007 -2.595991     0.831873 -0.262485 -3.012489
  1    -0.127688  1.594259  2.579798     0.000614  1.699599  2.383127
  1    -0.256324 -0.111344  3.092507     0.120547  0.058090  3.087426
  1     1.279665  0.502661  2.404018     1.444630  0.696435  2.056819
 generating redundant internal coords
         300        3600          13
 Adding extra bonds for z output only
           7           6           6           7           7           7
           6           1           1           1           1           1
           1
 search for int coords
   1 str   2   1   1.312
   2 str   3   2   1.473
   3 str   4   2   1.409
   4 str   5   4   1.332
   5 str   6   1   1.331
   6 str   6   5   1.520
   7 str   7   5   1.449
   8 str   8   3   1.091
   9 str   9   3   1.096
  10 str  10   3   1.097
  11 str  11   7   1.091
  12 str  12   7   1.091
  13 str  13   7   1.097
 nber stretches=          13
  14 ben   1   2   3
  15 prop tor   1   2   3   8
  16 prop tor   1   2   3   9
  17 prop tor   1   2   3  10
  18 ben   1   2   4
  19 prop tor   1   2   4   5
  20 ben   1   6   5
  21 ben   2   1   6
  22 prop tor   2   1   6   5
  23 ben   2   3   8
  24 ben   2   3   9
  25 ben   2   3  10
  26 ben   2   4   5
  27 prop tor   2   4   5   6
  28 prop tor   2   4   5   7
  29 ben   3   2   4
  30 prop tor   3   2   4   5
  31 prop tor   4   2   3   8
  32 prop tor   4   2   3   9
  33 prop tor   4   2   3  10
  34 ben   4   5   6
  35 prop tor   4   5   6   1
  36 ben   4   5   7
  37 prop tor   4   5   7  11
  38 prop tor   4   5   7  12
  39 prop tor   4   5   7  13
  40 ben   5   7  11
  41 ben   5   7  12
  42 ben   5   7  13
  43 prop tor   6   1   2   3
  44 prop tor   6   1   2   4
  45 ben   6   5   7
  46 prop tor   6   5   7  11
  47 prop tor   6   5   7  12
  48 prop tor   6   5   7  13
  49 prop tor   7   5   6   1
  50 ben   8   3   9
  51 ben   8   3  10
  52 ben   9   3  10
  53 ben  11   7  12
  54 ben  11   7  13
  55 ben  12   7  13
 nber bend=              21
 nber lin bend=           0
 nber prop tor=          21
 nber impr tor=           0
 nber tot redund int=          55
 generating redundant internal coords
         300        3600          13
 search for int coords
   1 str   2   1   1.332
   2 str   3   2   1.483
   3 str   4   2   1.322
   4 str   5   4   1.445
   5 str   6   1   1.304
   6 str   6   5   1.425
   7 str   7   5   1.454
   8 str   8   3   1.094
   9 str   9   3   1.092
  10 str  10   3   1.092
  11 str  11   7   1.095
  12 str  12   7   1.091
  13 str  13   7   1.097
 nber stretches=          13
  14 ben   1   2   3
  15 prop tor   1   2   3   8
  16 prop tor   1   2   3   9
  17 prop tor   1   2   3  10
  18 ben   1   2   4
  19 prop tor   1   2   4   5
  20 ben   1   6   5
  21 ben   2   1   6
  22 prop tor   2   1   6   5
  23 ben   2   3   8
  24 ben   2   3   9
  25 ben   2   3  10
  26 ben   2   4   5
  27 prop tor   2   4   5   6
  28 prop tor   2   4   5   7
  29 ben   3   2   4
  30 prop tor   3   2   4   5
  31 prop tor   4   2   3   8
  32 prop tor   4   2   3   9
  33 prop tor   4   2   3  10
  34 ben   4   5   6
  35 prop tor   4   5   6   1
  36 ben   4   5   7
  37 prop tor   4   5   7  11
  38 prop tor   4   5   7  12
  39 prop tor   4   5   7  13
  40 ben   5   7  11
  41 ben   5   7  12
  42 ben   5   7  13
  43 prop tor   6   1   2   3
  44 prop tor   6   1   2   4
  45 ben   6   5   7
  46 prop tor   6   5   7  11
  47 prop tor   6   5   7  12
  48 prop tor   6   5   7  13
  49 prop tor   7   5   6   1
  50 ben   8   3   9
  51 ben   8   3  10
  52 ben   9   3  10
  53 ben  11   7  12
  54 ben  11   7  13
  55 ben  12   7  13
 nber bend=              21
 nber lin bend=           0
 nber prop tor=          21
 nber impr tor=           0
 nber tot redund int=          55
 Eigenvalues of G in red int coords
    Gval -0.00000000 -0.00000000 -0.00000000 -0.00000000 -0.00000000 -0.00000000 -0.00000000 -0.00000000
    Gval -0.00000000 -0.00000000 -0.00000000 -0.00000000  0.00000000  0.00000000  0.00000000  0.00000000
    Gval  0.00000000  0.00000000  0.00000000  0.00000000  0.00000000  0.00000000  0.00002001  0.00002635
    Gval  0.00003859  0.00005728  0.00006652  0.00007036  0.00008814  0.00009502  0.00017561  0.00021300
    Gval  0.00025653  0.00031620  0.00035217  0.00048656  0.00051949  0.00054322  0.00054889  0.00055415
    Gval  0.00055534  0.00058218  0.00063814  0.00069472  0.00071732  0.00078603  0.00111323  0.00114645
    Gval  0.00115167  0.00118288  0.00134769  0.00241159  0.00241950  0.00245003  0.00246195
  2.001109338747069E-005  2.001109338747069E-005
  2.635354974252727E-005  2.001109338747069E-005
  3.858657372045402E-005  2.001109338747069E-005
  5.728433940656283E-005  2.001109338747069E-005
  6.652086085024656E-005  2.001109338747069E-005
  7.035860450337739E-005  2.001109338747069E-005
  8.813818920172997E-005  2.001109338747069E-005
  9.502203934488407E-005  2.001109338747069E-005
  1.756089841903496E-004  2.001109338747069E-005
  2.130036095829789E-004  2.001109338747069E-005
  2.565345540765919E-004  2.001109338747069E-005
  3.162007683910611E-004  2.001109338747069E-005
  3.521696049885156E-004  2.001109338747069E-005
  4.865606289512598E-004  2.001109338747069E-005
  5.194946368403379E-004  2.001109338747069E-005
  5.432221500358240E-004  2.001109338747069E-005
  5.488902244067201E-004  2.001109338747069E-005
  5.541525161794846E-004  2.001109338747069E-005
  5.553421314217224E-004  2.001109338747069E-005
  5.821838995591463E-004  2.001109338747069E-005
  6.381404119316753E-004  2.001109338747069E-005
  6.947220269255993E-004  2.001109338747069E-005
  7.173231048224298E-004  2.001109338747069E-005
  7.860286296058709E-004  2.001109338747069E-005
  1.113232057390526E-003  2.001109338747069E-005
  1.146454817842091E-003  2.001109338747069E-005
  1.151671360541616E-003  2.001109338747069E-005
  1.182880115648920E-003  2.001109338747069E-005
  1.347692987346710E-003  2.001109338747069E-005
  2.411587195279059E-003  2.001109338747069E-005
  2.419496750278164E-003  2.001109338747069E-005
  2.450034955385833E-003  2.001109338747069E-005
  2.461951064391439E-003  2.001109338747069E-005
 cut=1d-8, nber non-redundant internal coords=          33
 Check on Eigenvals of non-red overlap matrix:
  0.00002001  0.00002635  0.00003859  0.00005728  0.00006652  0.00007036  0.00008814  0.00009502
  0.00017561  0.00021300  0.00025653  0.00031620  0.00035217  0.00048656  0.00051949  0.00054322
  0.00054889  0.00055415  0.00055534  0.00058218  0.00063814  0.00069472  0.00071732  0.00078603
  0.00111323  0.00114645  0.00115167  0.00118288  0.00134769  0.00241159  0.00241950  0.00245003
  0.00246195
 generating redundant internal coords
         300        3600          13
 search for int coords
   1 str   2   1   1.312
   2 str   3   2   1.473
   3 str   4   2   1.409
   4 str   5   4   1.332
   5 str   6   1   1.331
   6 str   6   5   1.520
   7 str   7   5   1.449
   8 str   8   3   1.091
   9 str   9   3   1.096
  10 str  10   3   1.097
  11 str  11   7   1.091
  12 str  12   7   1.091
  13 str  13   7   1.097
 nber stretches=          13
  14 ben   1   2   3
  15 prop tor   1   2   3   8
  16 prop tor   1   2   3   9
  17 prop tor   1   2   3  10
  18 ben   1   2   4
  19 prop tor   1   2   4   5
  20 ben   1   6   5
  21 ben   2   1   6
  22 prop tor   2   1   6   5
  23 ben   2   3   8
  24 ben   2   3   9
  25 ben   2   3  10
  26 ben   2   4   5
  27 prop tor   2   4   5   6
  28 prop tor   2   4   5   7
  29 ben   3   2   4
  30 prop tor   3   2   4   5
  31 prop tor   4   2   3   8
  32 prop tor   4   2   3   9
  33 prop tor   4   2   3  10
  34 ben   4   5   6
  35 prop tor   4   5   6   1
  36 ben   4   5   7
  37 prop tor   4   5   7  11
  38 prop tor   4   5   7  12
  39 prop tor   4   5   7  13
  40 ben   5   7  11
  41 ben   5   7  12
  42 ben   5   7  13
  43 prop tor   6   1   2   3
  44 prop tor   6   1   2   4
  45 ben   6   5   7
  46 prop tor   6   5   7  11
  47 prop tor   6   5   7  12
  48 prop tor   6   5   7  13
  49 prop tor   7   5   6   1
  50 ben   8   3   9
  51 ben   8   3  10
  52 ben   9   3  10
  53 ben  11   7  12
  54 ben  11   7  13
  55 ben  12   7  13
 nber bend=              21
 nber lin bend=           0
 nber prop tor=          21
 nber impr tor=           0
 nber tot redund int=          55
 Eigenvalues of G in red int coords
    Gval -0.00000000 -0.00000000 -0.00000000 -0.00000000 -0.00000000 -0.00000000 -0.00000000 -0.00000000
    Gval -0.00000000 -0.00000000 -0.00000000 -0.00000000 -0.00000000  0.00000000  0.00000000  0.00000000
    Gval  0.00000000  0.00000000  0.00000000  0.00000000  0.00000000  0.00000000  0.00001956  0.00002656
    Gval  0.00003857  0.00005978  0.00006586  0.00007379  0.00008888  0.00009455  0.00018316  0.00020253
    Gval  0.00024197  0.00030954  0.00031554  0.00047805  0.00051273  0.00054260  0.00054758  0.00055418
    Gval  0.00055534  0.00058518  0.00062699  0.00069297  0.00071658  0.00082079  0.00107756  0.00111607
    Gval  0.00114850  0.00121132  0.00125906  0.00240232  0.00243302  0.00243696  0.00245520
  1.956239125895054E-005  1.956239125895054E-005
  2.656084682066270E-005  1.956239125895054E-005
  3.857100392017580E-005  1.956239125895054E-005
  5.977984430971975E-005  1.956239125895054E-005
  6.585506862891978E-005  1.956239125895054E-005
  7.378582239052729E-005  1.956239125895054E-005
  8.888305729406734E-005  1.956239125895054E-005
  9.454673732702429E-005  1.956239125895054E-005
  1.831560193615394E-004  1.956239125895054E-005
  2.025258030227416E-004  1.956239125895054E-005
  2.419715708280459E-004  1.956239125895054E-005
  3.095357514021823E-004  1.956239125895054E-005
  3.155363224637637E-004  1.956239125895054E-005
  4.780468087089116E-004  1.956239125895054E-005
  5.127311883148181E-004  1.956239125895054E-005
  5.426000683094784E-004  1.956239125895054E-005
  5.475762637573834E-004  1.956239125895054E-005
  5.541751535578459E-004  1.956239125895054E-005
  5.553378557139992E-004  1.956239125895054E-005
  5.851790833769331E-004  1.956239125895054E-005
  6.269912261185403E-004  1.956239125895054E-005
  6.929655384342076E-004  1.956239125895054E-005
  7.165796614920413E-004  1.956239125895054E-005
  8.207894538044099E-004  1.956239125895054E-005
  1.077563479386533E-003  1.956239125895054E-005
  1.116070408937530E-003  1.956239125895054E-005
  1.148503250539543E-003  1.956239125895054E-005
  1.211324718373888E-003  1.956239125895054E-005
  1.259064532575321E-003  1.956239125895054E-005
  2.402320499963401E-003  1.956239125895054E-005
  2.433018327334368E-003  1.956239125895054E-005
  2.436959127741290E-003  1.956239125895054E-005
  2.455195800849650E-003  1.956239125895054E-005
 cut=1d-8, nber non-redundant internal coords=          33
 Check on Eigenvals of non-red overlap matrix:
  0.00001956  0.00002656  0.00003857  0.00005978  0.00006586  0.00007379  0.00008888  0.00009455
  0.00018316  0.00020253  0.00024197  0.00030954  0.00031554  0.00047805  0.00051273  0.00054260
  0.00054758  0.00055418  0.00055534  0.00058518  0.00062699  0.00069297  0.00071658  0.00082079
  0.00107756  0.00111607  0.00114850  0.00121132  0.00125906  0.00240232  0.00243302  0.00243696
  0.00245520
 d1=
  -9.0  -7.4 -26.6   8.6 -30.3  26.2  14.4  22.7  -4.6   2.0  -6.3  -7.0  -5.7   6.0   2.8  -0.8   0.4  -0.0   0.1   8.0
   3.8   1.2  -1.5 -14.5  -3.6 -74.2  -1.2  75.3  -8.7  -0.6  -0.5  -0.6   1.3
 d2=
  -4.6   5.3 -24.1   1.9 -19.4 -26.4  -5.0 -32.6   0.9   8.4  12.3   1.3   8.1   5.3  -2.9  -1.1   0.2  -0.0  -0.1   7.0
  -4.0  -2.5   2.3  17.1 -79.7  -2.1   2.0  65.7  27.3  -1.9  -0.2  -0.8  -2.7
 curvilinear- renormalizn of Dush matrix done
  mol 1 sym            1  -> mol 2 sym            1

 Dushinsky matrix, ncs 2 in terms of ncs 1

   mode   freq    coeff     %      %tot     of    at

   1        -0. -0.0000     0.0     0.0   7        53.
   2        -0. -0.0000     0.0     0.0  10       251.
   3        -0.  0.0000     0.0     0.0   7        53.
   4        -0.  0.0000     0.0     0.0   7        53.
   5         0.  0.0000     0.0     0.0   8       113.
   6         0. -0.0000     0.0     0.0   7        53.
   7       124. -0.5941    35.3   103.7   7        53.
                 0.7598    57.7           8       113.
   8       133.  0.7600    57.8    99.8   7        53.
                 0.5701    32.5           8       113.
   9       184. -0.3784    14.3    98.1   9       242.
                -0.8714    75.9          10       251.
  10       249.  0.7297    53.2    89.4   9       242.
                -0.4273    18.3          10       251.
  11       277.  0.3774    14.2    84.4   9       242.
                -0.3276    10.7          10       251.
                 0.8066    65.1          11       298.
  12       310.  0.6186    38.3   110.2  13       423.
                 0.3182    10.1          14       503.
                -0.3743    14.0          15       638.
  13       419. -0.8066    65.1    95.4  12       414.
                -0.4564    20.8          13       423.
  14       564.  0.6377    40.7    90.7  14       503.
                 0.6043    36.5          15       638.
  15       594.  0.5307    28.2    94.0  12       414.
                -0.3218    10.4          13       423.
                 0.4395    19.3          14       503.
                -0.5729    32.8          15       638.
  16       665.  0.8465    71.7   106.0  16       710.
  17       746.  0.8773    77.0    94.4  17       769.
  18       941. -0.3547    12.6   109.2  18       906.
                -0.3741    14.0          20      1030.
                -0.4328    18.7          21      1078.
  19      1023. -0.5957    35.5   109.5  20      1030.
                 0.4246    18.0          21      1078.
                 0.4757    22.6          22      1108.
  20      1035.  0.4102    16.8   142.8   9       242.
                 0.6194    38.4          19       969.
                -0.3579    12.8          26      1344.
  21      1075. -0.5626    31.6   107.5  18       906.
                 0.3877    15.0          21      1078.
  22      1115. -0.3232    10.4   108.2  18       906.
                 0.4457    19.9          20      1030.
                 0.6572    43.2          22      1108.
  23      1150. -0.7933    62.9   102.8  23      1165.
                 0.3241    10.5          26      1344.
  24      1207.  0.3361    11.3   104.8  24      1214.
                 0.7661    58.7          25      1253.
  25      1320. -0.3713    13.8   118.9  21      1078.
                -0.4235    17.9          26      1344.
                -0.3694    13.6          33      1583.
  26      1404. -0.3919    15.4   100.4  18       906.
                -0.7556    57.1          24      1214.
  27      1432.  0.8405    70.6   102.3  27      1437.
  28      1457.  0.7785    60.6    99.8  30      1488.
                -0.4513    20.4          31      1497.
                -0.3607    13.0          33      1583.
  29      1464.  0.8841    78.2   100.6  28      1455.
                 0.3678    13.5          29      1475.
  30      1469. -0.3967    15.7   102.3  30      1488.
                -0.8360    69.9          31      1497.
  31      1492. -0.3937    15.5   101.1  28      1455.
                 0.9038    81.7          29      1475.
  32      1507. -0.9891    97.8    99.2  32      1511.
  33      1577.  0.3569    12.7   105.9  19       969.
                 0.3811    14.5          26      1344.
                -0.4093    16.8          30      1488.
                -0.6467    41.8          33      1583.
  34      3069.  0.9903    98.1   100.0  34      3059.
  35      3073.  0.9245    85.5   100.6  35      3094.
                 0.3704    13.7          37      3176.
  36      3141.  0.9514    90.5   109.9  39      3200.
  37      3171. -0.9348    87.4   100.1  36      3148.
                 0.3376    11.4          38      3197.
  38      3205.  0.3517    12.4   110.1  35      3094.
                -0.8863    78.6          37      3176.
  39      3212.  0.3317    11.0   100.0  36      3148.
                 0.9404    88.4          38      3197.
 nber times 1st assigned=           1           0
 nber times 1st assigned=           2           0
 nber times 1st assigned=           3           0
 nber times 1st assigned=           4           0
 nber times 1st assigned=           5           0
 nber times 1st assigned=           6           0
 nber times 1st assigned=           7           4
 nber times 1st assigned=           9           0
 nber times 1st assigned=          11           0
 nber times 1st assigned=          12           0
 nber times 1st assigned=          13           0
 nber times 1st assigned=          14           0
 nber times 1st assigned=          15           0
 nber times 1st assigned=          16           0
 nber times 1st assigned=          17           0
 nber times 1st assigned=          18           0
 nber times 1st assigned=          19           0
 nber times 1st assigned=          20           0
 nber times 1st assigned=          21           0
 nber times 1st assigned=          22           0
 nber times 1st assigned=          23           0
 nber times 1st assigned=          24           0
 nber times 1st assigned=          25           0
 nber times 1st assigned=          26           0
 nber times 1st assigned=          27           0
 nber times 1st assigned=          28           0
 nber times 1st assigned=          29           0
 nber times 1st assigned=          30           0
 nber times 1st assigned=          31           0
 nber times 1st assigned=          32           0
 nber times 1st assigned=          33           0
 nber times 1st assigned=          34           0
 nber times 1st assigned=          35           0
 nber times 1st assigned=          36           0
 nber times 1st assigned=          37           0
 nber times 1st assigned=          38           0
 nber times 1st assigned=          39           0
 Dushinsky matrix written to .out file
 modes represented=   34.0185139035787     

 Dushinsky matrix, ncs 1 in terms of ncs 2

   mode   freq    coeff     %      %tot     of    at

   7        53. -0.5941    35.3   100.8   7       124.
                 0.7600    57.8           8       133.
   8       113.  0.7598    57.7   125.1   7       124.
                 0.5701    32.5           8       133.
   9       242. -0.3784    14.3   130.9   9       184.
                 0.7297    53.2          10       249.
                 0.3774    14.2          11       277.
                 0.4102    16.8          20      1035.
  10       251. -0.8714    75.9   112.3   9       184.
                -0.4273    18.3          10       249.
                -0.3276    10.7          11       277.
  11       298.  0.8066    65.1   122.6  11       277.
  12       414. -0.8066    65.1   116.7  13       419.
                 0.5307    28.2          15       594.
  13       423.  0.6186    38.3   105.3  12       310.
                -0.4564    20.8          13       419.
                -0.3218    10.4          15       594.
  14       503.  0.3182    10.1   100.6  12       310.
                 0.6377    40.7          14       564.
                 0.4395    19.3          15       594.
  15       638. -0.3743    14.0   102.1  12       310.
                 0.6043    36.5          14       564.
                -0.5729    32.8          15       594.
  16       710.  0.8465    71.7    99.8  16       665.
  17       769.  0.8773    77.0    94.7  17       746.
  18       906. -0.3547    12.6   100.1  18       941.
                -0.5626    31.6          21      1075.
                -0.3232    10.4          22      1115.
                -0.3919    15.4          26      1404.
  19       969.  0.6194    38.4   111.0  20      1035.
                 0.3569    12.7          33      1577.
  20      1030. -0.3741    14.0   100.6  18       941.
                -0.5957    35.5          19      1023.
                 0.4457    19.9          22      1115.
  21      1078. -0.4328    18.7    91.7  18       941.
                 0.4246    18.0          19      1023.
                 0.3877    15.0          21      1075.
                -0.3713    13.8          25      1320.
  22      1108.  0.4757    22.6    98.8  19      1023.
                 0.6572    43.2          22      1115.
  23      1165. -0.7933    62.9    98.4  23      1150.
  24      1214.  0.3361    11.3    97.8  24      1207.
                -0.7556    57.1          26      1404.
  25      1253.  0.7661    58.7   102.7  24      1207.
  26      1344. -0.3579    12.8    93.8  20      1035.
                 0.3241    10.5          23      1150.
                -0.4235    17.9          25      1320.
                 0.3811    14.5          33      1577.
  27      1437.  0.8405    70.6    99.9  27      1432.
  28      1455.  0.8841    78.2   100.5  29      1464.
                -0.3937    15.5          31      1492.
  29      1475.  0.3678    13.5   101.0  29      1464.
                 0.9038    81.7          31      1492.
  30      1488.  0.7785    60.6    99.1  28      1457.
                -0.3967    15.7          30      1469.
                -0.4093    16.8          33      1577.
  31      1497. -0.4513    20.4    99.1  28      1457.
                -0.8360    69.9          30      1469.
  32      1511. -0.9891    97.8    99.1  32      1507.
  33      1583. -0.3694    13.6    97.1  25      1320.
                -0.3607    13.0          28      1457.
                -0.6467    41.8          33      1577.
  34      3059.  0.9903    98.1   100.0  34      3069.
  35      3094.  0.9245    85.5    99.9  35      3073.
                 0.3517    12.4          38      3205.
  36      3148. -0.9348    87.4   100.0  37      3171.
                 0.3317    11.0          39      3212.
  37      3176.  0.3704    13.7   100.4  35      3073.
                -0.8863    78.6          38      3205.
  38      3197.  0.3376    11.4   100.0  37      3171.
                 0.9404    88.4          39      3212.
  39      3200.  0.9514    90.5    99.7  36      3141.
 nber times 1st assigned=           1           0
 nber times 1st assigned=           2           0
 nber times 1st assigned=           3           0
 nber times 1st assigned=           4           0
 nber times 1st assigned=           5           0
 nber times 1st assigned=           6           0
 nber times 1st assigned=           7           0
 nber times 1st assigned=           8           0
 nber times 1st assigned=           9           0
 nber times 1st assigned=          10           0
 nber times 1st assigned=          11           0
 nber times 1st assigned=          12           0
 nber times 1st assigned=          13           0
 nber times 1st assigned=          14           0
 nber times 1st assigned=          15           0
 nber times 1st assigned=          16           0
 nber times 1st assigned=          17           0
 nber times 1st assigned=          18           0
 nber times 1st assigned=          19           0
 nber times 1st assigned=          20           0
 nber times 1st assigned=          21           0
 nber times 1st assigned=          22           0
 nber times 1st assigned=          23           0
 nber times 1st assigned=          24           0
 nber times 1st assigned=          25           0
 nber times 1st assigned=          26           0
 nber times 1st assigned=          27           0
 nber times 1st assigned=          28           0
 nber times 1st assigned=          29           0
 nber times 1st assigned=          30           0
 nber times 1st assigned=          31           0
 nber times 1st assigned=          32           0
 nber times 1st assigned=          33           0
 nber times 1st assigned=          34           0
 nber times 1st assigned=          35           0
 nber times 1st assigned=          36           0
 nber times 1st assigned=          37           0
 nber times 1st assigned=          38           0
 nber times 1st assigned=          39           0
 modes represented=   34.0185139035787     
 p1=
    0.    0.   -0.    0.   -0.   -0.  -92.  -70.   -7.    2.    1.    6.   -7.   16.   -6.   15.  -21.  -12.    1.   13.
   -2.   -9.    1.    1.   -3.  -10.   -1.   -1.   -0.    2.    2.   -1.   -1.   -0.    0.    0.    0.    0.   -0.
 p2=
   -0.    0.    0.    0.    0.   -0.   -7.  105.  -19.   40.    1.  -20.   -8.   -8.  -10.  -19.   19.    6.   17.   -4.
   -9.   -8.   -4.    0.   -1.   -7.   -2.   -1.    0.   -2.    1.   -1.    3.    0.   -0.   -1.    0.    0.   -0.

 Displacement: in terms of nc of 1 THEN of nc of 2

   1     freq=    -0. Q=  0.000 lam=    -0.0     freq=    -0. Q=  0.000 lam=    -0.0
   2     freq=     0. Q=  0.000 lam=     0.0     freq=    -0. Q=  0.000 lam=    -0.0
   3     freq=     0. Q= -0.000 lam=     0.0     freq=    -0. Q= -0.000 lam=    -0.0
   4     freq=     0. Q=  0.000 lam=     0.0     freq=    -0. Q=  0.000 lam=    -0.0
   5     freq=     0. Q= -0.000 lam=     0.0     freq=     0. Q= -0.000 lam=     0.0
   6     freq=     0. Q= -0.000 lam=     0.0     freq=     0. Q= -0.000 lam=     0.0
   7     freq=    53. Q= -2.716 lam=   196.1     freq=   124. Q= -0.331 lam=     6.8
   8     freq=   113. Q= -3.002 lam=   510.9     freq=   133. Q= -4.878 lam=  1580.7
   9     freq=   242. Q= -0.430 lam=    22.3     freq=   184. Q= -1.047 lam=   101.0
  10     freq=   251. Q=  0.140 lam=     2.5     freq=   249. Q=  2.543 lam=   805.9
  11     freq=   298. Q=  0.073 lam=     0.8     freq=   277. Q=  0.098 lam=     1.3
  12     freq=   414. Q=  0.466 lam=    45.0     freq=   310. Q=  1.404 lam=   305.5
  13     freq=   423. Q= -0.573 lam=    69.6     freq=   419. Q= -0.626 lam=    82.1
  14     freq=   503. Q=  1.404 lam=   495.7     freq=   564. Q=  0.811 lam=   185.6
  15     freq=   638. Q= -0.601 lam=   115.3     freq=   594. Q= -1.015 lam=   305.6
  16     freq=   710. Q=  1.651 lam=   967.0     freq=   665. Q=  1.936 lam=  1246.7
  17     freq=   769. Q= -2.320 lam=  2069.5     freq=   746. Q= -2.081 lam=  1615.3
  18     freq=   906. Q= -1.428 lam=   924.2     freq=   941. Q= -0.708 lam=   235.7
  19     freq=   969. Q=  0.177 lam=    15.2     freq=  1023. Q=  2.251 lam=  2590.2
  20     freq=  1030. Q=  1.653 lam=  1407.3     freq=  1035. Q=  0.531 lam=   145.7
  21     freq=  1078. Q= -0.206 lam=    22.9     freq=  1075. Q= -1.169 lam=   735.0
  22     freq=  1108. Q= -1.249 lam=   863.3     freq=  1115. Q= -1.021 lam=   581.0
  23     freq=  1165. Q=  0.084 lam=     4.1     freq=  1150. Q=  0.597 lam=   204.6
  24     freq=  1214. Q=  0.080 lam=     3.9     freq=  1207. Q=  0.055 lam=     1.8
  25     freq=  1253. Q= -0.469 lam=   137.8     freq=  1320. Q= -0.144 lam=    13.7
  26     freq=  1344. Q= -1.487 lam=  1485.7     freq=  1404. Q= -1.048 lam=   771.0
  27     freq=  1437. Q= -0.106 lam=     8.0     freq=  1432. Q= -0.380 lam=   103.2
  28     freq=  1455. Q= -0.101 lam=     7.4     freq=  1457. Q= -0.174 lam=    22.2
  29     freq=  1475. Q= -0.015 lam=     0.2     freq=  1464. Q= -0.020 lam=     0.3
  30     freq=  1488. Q=  0.269 lam=    53.7     freq=  1469. Q=  0.277 lam=    56.4
  31     freq=  1497. Q=  0.389 lam=   113.3     freq=  1492. Q=  0.149 lam=    16.5
  32     freq=  1511. Q= -0.143 lam=    15.4     freq=  1507. Q= -0.210 lam=    33.2
  33     freq=  1583. Q= -0.140 lam=    15.5     freq=  1577. Q= -0.423 lam=   141.3
  34     freq=  3059. Q= -0.024 lam=     0.9     freq=  3069. Q= -0.003 lam=     0.0
  35     freq=  3094. Q=  0.017 lam=     0.4     freq=  3073. Q=  0.044 lam=     2.9
  36     freq=  3148. Q=  0.052 lam=     4.3     freq=  3141. Q=  0.114 lam=    20.3
  37     freq=  3176. Q=  0.070 lam=     7.8     freq=  3171. Q=  0.026 lam=     1.1
  38     freq=  3197. Q=  0.028 lam=     1.3     freq=  3205. Q=  0.035 lam=     2.0
  39     freq=  3200. Q= -0.048 lam=     3.6     freq=  3212. Q= -0.022 lam=     0.8

 total reorg energy (cm**-1, kcal/mol)=     9591.    11915.     27.42     34.07
 Nber of molecules processed=           2
